Na11Sn2PS12                             
           1
    13.473809    0.000000    0.100277
     0.000000   13.488866    0.000000
     0.200575    0.000000   26.962656
   Na   Sn   P    S 
  88  16   8  96
Direct configuration=    50
   0.02653718  0.02969950  0.13333546
   0.51868483  0.49761033  0.63239887
   0.50797302  0.43669470  0.86713684
   0.03743793  0.04425794  0.40135102
   0.47950942  0.99820841  0.85589321
   0.00449486  0.54520677  0.37906458
   0.98478071  0.49674761  0.12844454
   0.23474082  0.23433312  0.11096778
   0.70940346  0.74074887  0.61625569
   0.71616737  0.24501499  0.87868148
   0.78374111  0.77223563  0.36216163
   0.23841740  0.17412803  0.87752072
   0.77929352  0.26236963  0.12829451
   0.27295821  0.75239159  0.61283364
   0.00209179  0.95480713  0.87785686
   0.47866332  0.50227822  0.35619822
   0.98513923  0.00397129  0.62890285
   0.02786542  0.47117633  0.63365472
   0.52460194  0.00074419  0.13564226
   0.04024676  0.45278078  0.90245838
   0.50458580  0.06460674  0.36786415
   0.23687376  0.32561253  0.37888171
   0.78426645  0.72631008  0.86273411
   0.77619201  0.23695320  0.62882794
   0.27270488  0.74966413  0.11281669
   0.23731357  0.26674207  0.60973667
   0.70892404  0.75761142  0.11591172
   0.71722202  0.25429561  0.37913100
   0.48909689  0.72229820  0.49720008
   0.49956998  0.48279472  0.99890504
   0.00127595  0.80621258  0.50074412
   0.51768104  0.72510975  0.73738993
   0.02763471  0.80317871  0.26271970
   0.49880048  0.24568015  0.76315933
   0.00412926  0.69736411  0.00027365
   0.49973108  0.01849388  0.50052003
   0.49321870  0.78029711  0.99624221
   0.50103410  0.25375066  0.26376059
   0.02751648  0.69948166  0.76324526
   0.51615939  0.77282097  0.23681381
   0.02010114  0.08787480  0.26722829
   0.52806999  0.47135519  0.74765491
   0.47349015  0.97806134  0.73887667
   0.98360758  0.51126228  0.25508541
   0.35464886  0.21813376  0.98415635
   0.75802307  0.73165533  0.49487150
   0.26661817  0.78807209  0.48581233
   0.69503982  0.29592657  0.01493345
   0.98329989  0.98901765  0.75537999
   0.47443001  0.51908335  0.23804295
   0.02110881  0.41274767  0.76726840
   0.52800237  0.02516824  0.24898946
   0.35020088  0.28188401  0.48455957
   0.75965489  0.76870114  0.99559439
   0.69344259  0.20344619  0.51666898
   0.26560229  0.71233162  0.98757807
   0.96880799  0.01564475  0.00666264
   0.49873203  0.48434361  0.48809149
   0.49782171  0.54805880  0.12442060
   0.00559329  0.25544124  0.50686087
   0.49836592  0.01841621  0.98962534
   0.97037996  0.48544060  0.50676673
   0.01034368  0.24382542  0.00719068
   0.49608720  0.94686407  0.62365001
   0.22240899  0.27364819  0.25057194
   0.76027312  0.73251487  0.74090075
   0.25113120  0.78704641  0.25464717
   0.77313636  0.19898258  0.76396678
   0.75886102  0.76512059  0.24097611
   0.21933539  0.22571436  0.75051967
   0.77281240  0.30117284  0.26457970
   0.25054917  0.71202029  0.75464547
   0.26657641  0.48265765  0.12683698
   0.72378271  0.95129244  0.62896856
   0.73009703  0.99269721  0.87222804
   0.26857956  0.67475702  0.37168758
   0.25942774  0.52690997  0.87547609
   0.77713085  0.98388733  0.37807472
   0.75202320  0.00968554  0.12073394
   0.25126450  0.53461181  0.62469717
   0.78156921  0.51289215  0.87825271
   0.25900551  0.97547311  0.37402365
   0.75134420  0.49023694  0.62074650
   0.25514575  0.96827016  0.12393927
   0.26648912  0.02013046  0.62672955
   0.72012030  0.54449013  0.12821831
   0.26784347  0.82600589  0.87237386
   0.72924011  0.50657019  0.37293789
   0.27648185  0.01368794  0.24751857
   0.76312537  0.47292108  0.74385770
   0.22807576  0.97693202  0.74716603
   0.71496311  0.52036054  0.24759612
   0.24114165  0.96356514  0.00474632
   0.73647715  0.48225982  0.49120212
   0.24358060  0.03620849  0.50035814
   0.75701086  0.53019306  0.99793725
   0.71516629  0.97930259  0.74751888
   0.22778004  0.52273144  0.24754301
   0.27686764  0.48611338  0.74789607
   0.76323538  0.02686129  0.24378966
   0.24125170  0.53854595  0.50516458
   0.73594003  0.01752481  0.99119086
   0.75646295  0.96990396  0.49824786
   0.24450509  0.46531340  0.00086175
   0.98842044  0.28183942  0.37819365
   0.51551464  0.74996630  0.86596796
   0.51230179  0.22044154  0.62573795
   0.00742565  0.76403634  0.13726521
   0.98907323  0.21734517  0.87808940
   0.51488260  0.74968484  0.36565856
   0.00809574  0.73638168  0.63727810
   0.51132634  0.27720769  0.12597157
   0.15103821  0.36707420  0.05710713
   0.63743621  0.86733467  0.54156374
   0.63818428  0.13305985  0.94421907
   0.14208373  0.63551898  0.45573033
   0.36458662  0.39092651  0.94463793
   0.84655955  0.86383272  0.44625198
   0.82304607  0.12500798  0.05412045
   0.35615044  0.63219654  0.55092434
   0.87686785  0.11856460  0.19460029
   0.38447432  0.58400105  0.69517467
   0.87439022  0.92828366  0.29740496
   0.37755808  0.38880759  0.80453775
   0.12561216  0.63300574  0.30229075
   0.62453572  0.08241698  0.80079370
   0.11588757  0.41475041  0.20007617
   0.61539536  0.88130780  0.69277744
   0.84819667  0.63627031  0.94676506
   0.36510232  0.11222450  0.44572637
   0.82352237  0.37575344  0.55451802
   0.35394688  0.86777792  0.05007342
   0.15114148  0.13501292  0.55634062
   0.63742000  0.63179019  0.04069532
   0.14364111  0.86457799  0.95545301
   0.63800588  0.36727067  0.44406485
   0.62514888  0.41723947  0.30115621
   0.12523134  0.86703264  0.80195515
   0.11627657  0.08448128  0.69989555
   0.61415284  0.61837521  0.19257173
   0.87726152  0.38156828  0.69463187
   0.38286871  0.91403983  0.19521320
   0.37799481  0.11077230  0.30371207
   0.87592069  0.57116574  0.79724518
   0.13519921  0.06360571  0.05536907
   0.62822039  0.57253281  0.54775579
   0.65251312  0.43059182  0.94725913
   0.14185017  0.92575940  0.45056263
   0.33755642  0.04479017  0.94008932
   0.85179831  0.59582459  0.44779820
   0.86176441  0.43308652  0.05004229
   0.34173143  0.92529014  0.54834131
   0.18501568  0.12458141  0.19231705
   0.66636846  0.59123764  0.69681932
   0.15524340  0.92666817  0.29840389
   0.67965215  0.36696314  0.80326583
   0.81774012  0.61533718  0.29888196
   0.34074216  0.08963295  0.79067268
   0.82771703  0.42260544  0.19479226
   0.32128268  0.86096153  0.69782453
   0.85096962  0.90439339  0.94766287
   0.33706712  0.45822479  0.43983962
   0.86342762  0.06655038  0.54944713
   0.34069694  0.57766018  0.04867507
   0.13608813  0.43677398  0.55511224
   0.62829304  0.92770128  0.04784061
   0.14100736  0.57489221  0.95121026
   0.65309444  0.06984946  0.44785762
   0.33996828  0.41035707  0.29130486
   0.81807908  0.88396958  0.79912066
   0.82827981  0.07812937  0.69505879
   0.32153831  0.63877423  0.19805984
   0.18668802  0.37561728  0.69183848
   0.66666861  0.90848888  0.19665662
   0.68076091  0.13178608  0.30400363
   0.15562492  0.57322501  0.79870991
   0.09232030  0.20950734  0.33456934
   0.59861760  0.65957359  0.82109207
   0.59306847  0.31951987  0.66883875
   0.11334208  0.85135572  0.17217142
   0.40537722  0.15064954  0.66853995
   0.90660169  0.68358378  0.18227268
   0.89244890  0.36785939  0.33710125
   0.42338600  0.81530046  0.81542329
   0.06412399  0.11971221  0.92313069
   0.58640052  0.64901030  0.40950576
   0.08868793  0.83142683  0.59279232
   0.60836718  0.38467263  0.09519968
   0.92227239  0.64589913  0.59227092
   0.43141403  0.18897456  0.07263471
   0.90998256  0.31982737  0.92182406
   0.43364573  0.83900919  0.41497870
   0.90674452  0.81692496  0.68205241
   0.40652649  0.34931588  0.16926025
   0.89282053  0.13242250  0.83671131
   0.42386261  0.68283789  0.31512329
   0.09302060  0.29080168  0.83480722
   0.59805975  0.84039034  0.32089428
   0.11378704  0.64965575  0.67281100
   0.59540887  0.18145233  0.16921969
   0.43685328  0.30511361  0.56960190
   0.92024150  0.85358121  0.09227922
   0.90996018  0.17932020  0.42198770
   0.43524557  0.66093874  0.91588252
   0.06255818  0.37920320  0.42393811
   0.58667354  0.85187953  0.90912487
   0.61042209  0.11247008  0.59702288
   0.08717390  0.66865968  0.09253339
Direct configuration=   100
   0.00324931  0.99778034  0.14834688
   0.51224306  0.51947866  0.62409892
   0.52468271  0.48663872  0.87703136
   0.00088659  0.03079309  0.41878355
   0.46865889  0.01174460  0.86955135
   0.98294025  0.53323044  0.38074150
   0.97408560  0.50871554  0.13357106
   0.26830906  0.20072074  0.12308283
   0.72858107  0.73567995  0.62996363
   0.74116844  0.24321434  0.86438318
   0.76789599  0.73245648  0.38252762
   0.23279274  0.17003749  0.87575337
   0.79630276  0.26161997  0.12068516
   0.25252396  0.79465387  0.61729088
   0.98263310  0.96692763  0.88063567
   0.46959868  0.48821640  0.36883285
   0.97609473  0.99064808  0.63398905
   0.00276101  0.50256613  0.64824768
   0.51249160  0.98595534  0.12435457
   0.00706954  0.46629348  0.92139819
   0.52108658  0.01289704  0.37774443
   0.23238730  0.32973079  0.37536659
   0.76730354  0.76628511  0.88297902
   0.79924238  0.23444816  0.62036806
   0.25246573  0.70536431  0.11752863
   0.27431748  0.30214516  0.62360593
   0.72789869  0.76252297  0.13168600
   0.73788335  0.25800660  0.36460729
   0.53297178  0.74530390  0.49391374
   0.50126926  0.48470372  0.99460640
   0.99766526  0.79164399  0.49983842
   0.50445864  0.73086483  0.74838459
   0.98546008  0.73613591  0.25456263
   0.49696054  0.22344089  0.74670032
   0.99777370  0.71115161  0.00011173
   0.50049254  0.01938074  0.49643855
   0.53294401  0.75553557  0.99457114
   0.49846223  0.27338172  0.24540540
   0.98570866  0.76222604  0.75509715
   0.50471553  0.76822495  0.24780789
   0.02263327  0.03771391  0.26519919
   0.52330096  0.48904369  0.75039245
   0.47528121  0.00011986  0.73801430
   0.97677434  0.47856120  0.25604064
   0.37339583  0.21261283  0.98898073
   0.76409253  0.71584062  0.50563507
   0.27429607  0.78403407  0.49485773
   0.73351494  0.26082871  0.98876870
   0.97778502  0.02239194  0.75640576
   0.47482827  0.50096174  0.23827932
   0.02116945  0.46225006  0.76437492
   0.52346596  0.00553914  0.25365546
   0.35740505  0.29266371  0.48894709
   0.76656511  0.78349636  0.00702576
   0.72554140  0.24078940  0.48958386
   0.27915470  0.71817945  0.99488727
   0.99553578  0.98156590  0.01846953
   0.47200428  0.48175432  0.50309595
   0.48884779  0.52130248  0.11292689
   0.98630140  0.22605550  0.51400541
   0.47012447  0.01919059  0.00614947
   0.99655145  0.51636187  0.51898103
   0.98969667  0.27112751  0.01372624
   0.48994854  0.97679567  0.61230665
   0.20565628  0.25628194  0.25305331
   0.73992072  0.72688601  0.75934408
   0.25415091  0.74908422  0.24993883
   0.75824047  0.26690418  0.73846254
   0.74060887  0.77334422  0.25998959
   0.20428218  0.24341418  0.75369424
   0.76329646  0.23197150  0.24034153
   0.25634036  0.75107645  0.75080251
   0.24953246  0.45966539  0.12213059
   0.73837479  0.01153038  0.61323626
   0.73138050  0.99110777  0.86540054
   0.22325806  0.68236948  0.38363921
   0.27972997  0.47788562  0.87280410
   0.77018414  0.01168060  0.36557303
   0.78491654  0.99927340  0.11604628
   0.24898560  0.54801697  0.63376555
   0.77794197  0.48396985  0.86553699
   0.27522141  0.02688093  0.37246673
   0.78450486  0.49834486  0.61608263
   0.24930531  0.95498285  0.13271052
   0.24865654  0.04160996  0.62106467
   0.73562102  0.48365117  0.11276508
   0.22454560  0.81625911  0.88277582
   0.73233504  0.50976721  0.36516999
   0.27343933  0.00743751  0.25136538
   0.78992249  0.50037539  0.74496087
   0.23291017  0.97322415  0.75148211
   0.72298375  0.51963409  0.24312082
   0.22185545  0.95944835  0.00068496
   0.72378326  0.46363582  0.49415944
   0.24952315  0.04584909  0.50197826
   0.76583612  0.52033826  0.99585200
   0.72384097  0.97996581  0.74335015
   0.23281223  0.52627240  0.25238369
   0.27419765  0.49175931  0.75189811
   0.78991438  0.99973134  0.24527159
   0.22180052  0.54293939  0.50128882
   0.72235156  0.03569056  0.99400543
   0.76644667  0.97908826  0.49596821
   0.24932361  0.45589449  0.00253525
   0.98646661  0.27846618  0.38418685
   0.49594192  0.74599471  0.86843357
   0.52445840  0.24073206  0.62065248
   0.98677226  0.75108454  0.12584781
   0.98672429  0.22080580  0.88378886
   0.49530797  0.75474337  0.36837790
   0.98554766  0.74841581  0.62610857
   0.52394166  0.25611264  0.12068212
   0.17128846  0.33588287  0.05122085
   0.66045912  0.88276489  0.55040837
   0.62074725  0.11644859  0.93395602
   0.10919557  0.64245558  0.46330786
   0.35265527  0.37040763  0.94305997
   0.87351063  0.88464888  0.44695549
   0.84004004  0.13424922  0.04499860
   0.34690010  0.62582956  0.54858759
   0.87868212  0.11063283  0.19138675
   0.37431239  0.60278402  0.70008085
   0.88711478  0.89293288  0.29915203
   0.38309450  0.37565365  0.79500398
   0.12024693  0.62172639  0.30910748
   0.62990293  0.09255091  0.78992116
   0.12467555  0.42249464  0.20383966
   0.62580093  0.87044334  0.69721412
   0.87423653  0.61538771  0.94817163
   0.35404657  0.13226393  0.44319623
   0.83828351  0.36190831  0.54476346
   0.34647576  0.87683909  0.04809546
   0.17304503  0.16715423  0.55010374
   0.65995971  0.61498427  0.05061293
   0.10760515  0.86197367  0.96207947
   0.62299957  0.38356662  0.43327491
   0.62902815  0.40794640  0.28987529
   0.12129796  0.87874960  0.80929466
   0.12488665  0.07673506  0.70318953
   0.62372455  0.62872357  0.19665307
   0.87816174  0.38911362  0.69094750
   0.37510749  0.89837468  0.19931250
   0.38103029  0.12448774  0.29420381
   0.88662966  0.60730507  0.79940112
   0.15425924  0.07467882  0.05845687
   0.63809541  0.58676761  0.54439349
   0.66371422  0.41595781  0.94728226
   0.15792971  0.93014802  0.44918675
   0.31879064  0.03534456  0.93776767
   0.83493902  0.57599393  0.44477015
   0.86932518  0.41543981  0.04897936
   0.35472949  0.93844268  0.54958653
   0.15831495  0.09803221  0.19571889
   0.67377242  0.58282039  0.69390599
   0.17456195  0.91202540  0.30776925
   0.67627552  0.40767177  0.79793717
   0.83033043  0.60539072  0.30195213
   0.32640255  0.08773862  0.79942329
   0.83448311  0.42159852  0.19125685
   0.34341511  0.89644296  0.68966581
   0.83393123  0.92419047  0.94472993
   0.31696829  0.46816720  0.43678109
   0.86877095  0.08180792  0.55028156
   0.35383067  0.56223342  0.05070824
   0.15614975  0.42611414  0.55805929
   0.63808408  0.91298139  0.04483845
   0.16024340  0.57521090  0.95032235
   0.66501024  0.08311931  0.44758054
   0.32611948  0.41219020  0.29988655
   0.83172342  0.89501276  0.80232750
   0.83439066  0.07805532  0.69075233
   0.34271134  0.60242649  0.18962088
   0.15847386  0.40150450  0.69620361
   0.67364226  0.91744141  0.19412683
   0.67531282  0.09485754  0.29722584
   0.17549725  0.58900950  0.80733958
   0.07939014  0.17666372  0.35154442
   0.58478860  0.63786255  0.83310358
   0.61636501  0.32050236  0.66898700
   0.08571800  0.82487916  0.17006613
   0.42301921  0.14875764  0.66153443
   0.88845307  0.68307454  0.17249105
   0.91780793  0.36610435  0.33172491
   0.42043497  0.82960710  0.81554521
   0.06207533  0.14063543  0.93340422
   0.59224461  0.66079314  0.40748583
   0.06453511  0.84634323  0.58403510
   0.60589439  0.33634762  0.07067870
   0.90815997  0.65568798  0.57651056
   0.44776273  0.14276169  0.08764146
   0.88992659  0.29939131  0.92521260
   0.39216246  0.82678589  0.40950510
   0.88727964  0.81715955  0.67232506
   0.42435390  0.35080621  0.16147473
   0.91622416  0.13410274  0.83145649
   0.42010550  0.67101941  0.31562795
   0.07928234  0.32229317  0.85077966
   0.58503811  0.86402755  0.33365215
   0.08326132  0.67396227  0.67050599
   0.61425952  0.17487036  0.16938781
   0.45275261  0.35624963  0.58678726
   0.90860758  0.84325160  0.07664840
   0.88831453  0.20034361  0.42491879
   0.39255192  0.67374868  0.90929926
   0.06114657  0.35859994  0.43416777
   0.59307826  0.83925639  0.90779650
   0.60737455  0.15660262  0.57259538
   0.06355435  0.65297606  0.08329340
Direct configuration=   150
   0.02530702  0.99851707  0.13043761
   0.51427848  0.57153341  0.63052589
   0.47827721  0.47333069  0.87071122
   0.00086640  0.02558782  0.42611847
   0.47642714  0.00645155  0.87819147
   0.02183631  0.51095505  0.38757711
   0.99362780  0.45497841  0.12728718
   0.24874516  0.21888530  0.12812328
   0.73069312  0.73884047  0.61342632
   0.67477408  0.26126356  0.86146491
   0.76399070  0.72406274  0.37647481
   0.24558235  0.20928777  0.89505515
   0.75776496  0.25223653  0.10313219
   0.24370063  0.78742370  0.62875813
   0.01787427  0.98962430  0.88671538
   0.47625601  0.49528407  0.37778390
   0.99188149  0.03862681  0.62844286
   0.02491577  0.49466136  0.62953166
   0.51491988  0.93128635  0.13208510
   0.99727028  0.47548896  0.93189855
   0.46950043  0.02037551  0.37405444
   0.24588005  0.29568449  0.39218875
   0.76720330  0.77138343  0.87581823
   0.75882781  0.24281037  0.60349634
   0.24449069  0.71012368  0.12732574
   0.24945734  0.28201036  0.63148754
   0.73442337  0.76058792  0.11444641
   0.67235683  0.23678570  0.36147590
   0.48941486  0.78151105  0.50682169
   0.51006768  0.46423228  0.01304811
   0.02829855  0.80545706  0.48716000
   0.48545345  0.75748330  0.72340371
   0.97644178  0.72918985  0.24594099
   0.48330548  0.24984916  0.74616466
   0.03168239  0.69964938  0.98755379
   0.50598098  0.04570223  0.51360362
   0.49264351  0.72120045  0.00886122
   0.48554218  0.24772361  0.24599126
   0.97522005  0.77324327  0.74501425
   0.48552268  0.74296913  0.22482554
   0.04019870  0.01622942  0.28235060
   0.54414913  0.49507167  0.74818999
   0.47419156  0.98863661  0.75565109
   0.98205359  0.47218395  0.26433155
   0.32263142  0.22187190  0.01596177
   0.78931140  0.72794917  0.50990006
   0.24459155  0.81200252  0.50548391
   0.74195496  0.26677734  0.99156955
   0.98376817  0.02911347  0.76491256
   0.47325566  0.50956607  0.25560090
   0.04115293  0.48200446  0.78275063
   0.54159113  0.00467755  0.24988666
   0.29635988  0.30297857  0.51981309
   0.78672358  0.76979625  0.01014629
   0.74069626  0.23174965  0.49085265
   0.24721274  0.68987503  0.00427873
   0.96792490  0.99135614  0.99661069
   0.48663653  0.53511792  0.50101294
   0.49876065  0.51475042  0.12558366
   0.02059416  0.23866172  0.51567924
   0.48732589  0.95612280  0.99858532
   0.96609084  0.50634910  0.49708250
   0.01968508  0.25095578  0.01787220
   0.49898411  0.98933268  0.62666758
   0.19149916  0.25986735  0.26712175
   0.71853249  0.74097000  0.76171488
   0.26402284  0.74839303  0.25105959
   0.74487680  0.25542112  0.74443835
   0.71609178  0.75850710  0.26261036
   0.19066111  0.23919596  0.76707556
   0.74157754  0.24372228  0.24259680
   0.26656325  0.75187603  0.75161191
   0.25948027  0.45603185  0.12808965
   0.73152085  0.01061715  0.61973485
   0.73618020  0.04696322  0.87522711
   0.25342103  0.70257787  0.37616040
   0.24117830  0.46992101  0.88122973
   0.79546240  0.00938535  0.36163273
   0.75477822  0.01851604  0.12984813
   0.24698242  0.54935882  0.62629327
   0.79756372  0.49367268  0.86129008
   0.23393109  0.03914329  0.38026693
   0.75289996  0.47753798  0.62939204
   0.24604818  0.95095469  0.12665190
   0.26144861  0.04494683  0.62765945
   0.72718871  0.48202146  0.11919724
   0.25205557  0.79202743  0.87539704
   0.73799021  0.45231530  0.37423285
   0.27921335  0.00105489  0.25186996
   0.78447363  0.51297561  0.74374959
   0.22806923  0.00879807  0.75151058
   0.74487915  0.50488915  0.24308107
   0.22637841  0.96454896  0.99913343
   0.72482087  0.47655852  0.49435170
   0.26533731  0.05386021  0.49772679
   0.76871725  0.51188531  0.99455573
   0.74549054  0.99475114  0.74355625
   0.22714336  0.49116519  0.25209080
   0.27925973  0.49982202  0.75202203
   0.78503410  0.98787354  0.24391718
   0.22710014  0.53990388  0.49917493
   0.72375943  0.02305240  0.99545610
   0.76869989  0.98637527  0.49440436
   0.26371129  0.45007723  0.99866385
   0.98228978  0.25578836  0.38218774
   0.48540117  0.75393784  0.86904491
   0.51353378  0.26756040  0.61118076
   0.99835815  0.72521290  0.12119627
   0.98516253  0.24423972  0.88088824
   0.48608537  0.74713101  0.36917495
   0.99777568  0.77140981  0.62091240
   0.51378883  0.23419281  0.11141010
   0.18264299  0.33419593  0.04744562
   0.66442601  0.87761864  0.54569607
   0.61170455  0.13048122  0.95367823
   0.11952553  0.62948452  0.45290602
   0.36886275  0.36578705  0.94465477
   0.84184880  0.86935796  0.44121672
   0.84693182  0.12648880  0.04025699
   0.32580835  0.65461994  0.54998105
   0.89404210  0.08834312  0.19796465
   0.37919990  0.60488201  0.69942309
   0.87705650  0.87990498  0.29948968
   0.36516425  0.38027757  0.80583504
   0.11523634  0.61098301  0.29489277
   0.63408377  0.10059260  0.78936897
   0.13056437  0.38644380  0.19832681
   0.62332900  0.90716884  0.69329103
   0.84094984  0.62925967  0.94109583
   0.36796827  0.14060009  0.44353101
   0.84889990  0.37198276  0.53856586
   0.32182721  0.84623697  0.04922362
   0.17980721  0.16056869  0.55001981
   0.66376942  0.62027504  0.04522148
   0.12317367  0.87093904  0.95131128
   0.60948924  0.37177616  0.45272611
   0.63493993  0.39841950  0.28891000
   0.11633368  0.88755908  0.79343259
   0.13182997  0.11250907  0.69826776
   0.62386737  0.59380797  0.19236676
   0.89403066  0.40984311  0.69982837
   0.37750715  0.89301323  0.19954166
   0.36426137  0.12026493  0.30599263
   0.87835335  0.62196184  0.79836151
   0.14245074  0.06492413  0.05453004
   0.64635402  0.58146308  0.55632827
   0.66683968  0.43358317  0.93464176
   0.15057233  0.93955805  0.45528763
   0.33566160  0.05572997  0.95170950
   0.84262836  0.57149012  0.43713507
   0.86960981  0.40630573  0.04778841
   0.35317728  0.94830539  0.55340745
   0.16806343  0.09164171  0.19840663
   0.67039519  0.61579796  0.69495689
   0.19052710  0.90439403  0.31360044
   0.68504635  0.39943760  0.79292928
   0.82961077  0.61031069  0.30007227
   0.33306308  0.11364751  0.79825422
   0.83272022  0.40129831  0.18692355
   0.33505121  0.89659900  0.69820136
   0.84010066  0.92720194  0.93828070
   0.33210170  0.44381954  0.45100813
   0.87250921  0.08830044  0.54721955
   0.35322688  0.55292272  0.05545823
   0.14721093  0.43673007  0.55509760
   0.64438537  0.91797895  0.05692462
   0.15206834  0.56556499  0.95417189
   0.66281610  0.06176751  0.43529352
   0.33268476  0.38684059  0.29817403
   0.82970392  0.88885371  0.80033916
   0.83519671  0.09859388  0.68828893
   0.33372621  0.60408734  0.19909949
   0.16888879  0.40803683  0.69828253
   0.66839474  0.88348356  0.19678625
   0.68546621  0.10073302  0.29288983
   0.18821692  0.59659426  0.81268109
   0.09644867  0.17210225  0.35578778
   0.57018168  0.67231474  0.82031442
   0.61069786  0.32488393  0.66092095
   0.08687852  0.80029291  0.17146645
   0.42420741  0.18167010  0.65477894
   0.90693768  0.63441820  0.15878019
   0.90988523  0.34967753  0.33726631
   0.39822743  0.84840675  0.82543885
   0.05186411  0.16736465  0.93282126
   0.56994775  0.66762871  0.41945231
   0.08449567  0.87257412  0.58254616
   0.59602008  0.30951463  0.06087587
   0.91789720  0.66062562  0.58609530
   0.43988159  0.11638727  0.08134948
   0.87499421  0.33485772  0.91111074
   0.40347179  0.84688819  0.41274244
   0.90592866  0.86222676  0.65881907
   0.42381050  0.32002809  0.15444601
   0.90929677  0.15004644  0.83725288
   0.39924514  0.65376939  0.32447459
   0.10134503  0.32705448  0.85480453
   0.56908931  0.82941513  0.31986107
   0.08565797  0.69648084  0.67148584
   0.61107781  0.17412717  0.15952745
   0.43564916  0.37753621  0.57802912
   0.91982035  0.83679145  0.08546471
   0.87188789  0.16421881  0.41087649
   0.40432235  0.65006857  0.91144006
   0.05134724  0.33236765  0.43348913
   0.56872250  0.83337209  0.91976386
   0.59890967  0.19337068  0.56178887
   0.08481399  0.62503349  0.08224611
Direct configuration=   200
   0.99775856  0.95853614  0.13552490
   0.51812856  0.53219738  0.62059583
   0.52755686  0.52030477  0.86708079
   0.99841823  0.02603300  0.42918573
   0.47901680  0.02497636  0.87897568
   0.03756073  0.49196006  0.36927255
   0.02500587  0.46445090  0.10030675
   0.21765569  0.22454634  0.14082803
   0.75786814  0.75325519  0.62339659
   0.66835440  0.26737805  0.88108829
   0.73894142  0.73786397  0.37445049
   0.27013023  0.19468892  0.89026475
   0.76255246  0.27455948  0.11859292
   0.28464254  0.79143757  0.62163703
   0.03568263  0.00377676  0.86814031
   0.48198558  0.47832606  0.37974929
   0.02177052  0.02942010  0.60066484
   0.00326706  0.53476095  0.63500291
   0.52013167  0.96526375  0.12329089
   0.99370336  0.46143377  0.94414522
   0.52580475  0.98154796  0.36808558
   0.27123543  0.31377305  0.39105361
   0.73850371  0.76695039  0.87283402
   0.76579696  0.22984215  0.62109978
   0.28525223  0.71047285  0.12123429
   0.21587895  0.27282082  0.64165628
   0.75489024  0.73874024  0.12276060
   0.66313836  0.23100000  0.38283656
   0.48505416  0.80758523  0.49775562
   0.49779767  0.45090609  0.00710983
   0.01237781  0.77565235  0.49851629
   0.49227642  0.77898858  0.73797856
   0.98038925  0.72408093  0.24452673
   0.48459911  0.23929654  0.75139018
   0.01099342  0.73195026  0.99799682
   0.49870005  0.05952332  0.50577632
   0.48263006  0.69361301  0.99759367
   0.48078225  0.26459979  0.25130361
   0.98551699  0.77155255  0.74539787
   0.48758701  0.72014136  0.24069872
   0.00652796  0.01557154  0.26652407
   0.50702561  0.52367046  0.73975929
   0.48632434  0.00282478  0.77224102
   0.98972825  0.46426248  0.24032997
   0.30009454  0.20377847  0.02467616
   0.75960131  0.73864137  0.49562362
   0.24166244  0.78714547  0.49799651
   0.74492607  0.26231475  0.98782959
   0.98897103  0.03600171  0.74100966
   0.48572229  0.49344340  0.27032690
   0.00537261  0.48287239  0.76901583
   0.50811023  0.97248805  0.24161367
   0.27714229  0.28953964  0.52138640
   0.75672251  0.76021911  0.99524095
   0.74284054  0.23577197  0.48892962
   0.23964090  0.71642663  0.99618842
   0.98869460  0.98238226  0.99393340
   0.50406668  0.53445698  0.50107808
   0.48449609  0.48443060  0.13618234
   0.98226856  0.26454833  0.52424131
   0.50181141  0.96440747  0.00096440
   0.98522011  0.51626704  0.49317325
   0.98827028  0.22724254  0.02545297
   0.49012840  0.01564205  0.63506201
   0.20383045  0.21398654  0.26921987
   0.72970798  0.79343800  0.74869192
   0.22880024  0.72357991  0.25444608
   0.79941059  0.26955485  0.75567584
   0.72758691  0.71018885  0.24975912
   0.20727182  0.28686835  0.77025152
   0.78065844  0.22804451  0.24857934
   0.23174564  0.77936040  0.75271334
   0.25908595  0.45388621  0.13073607
   0.78066681  0.98105161  0.61938814
   0.77042699  0.04394839  0.86901736
   0.21560092  0.77458937  0.37098805
   0.24747622  0.46478490  0.87097580
   0.75729782  0.97553778  0.37519127
   0.73913853  0.00941850  0.11679458
   0.25804361  0.51316324  0.62483370
   0.75429600  0.52807261  0.87488783
   0.25537525  0.03561078  0.37177440
   0.74341266  0.49212666  0.61614256
   0.25840717  0.98386011  0.12470928
   0.26123436  0.04264946  0.63020319
   0.77496385  0.51752110  0.12152115
   0.21317185  0.71791113  0.87387636
   0.76569675  0.45465557  0.36860840
   0.28337556  0.98337374  0.25562972
   0.76960790  0.52104793  0.74229313
   0.23420656  0.03648783  0.75007195
   0.73166297  0.46661108  0.24526213
   0.24283942  0.96009589  0.99830654
   0.73651988  0.48788652  0.49690173
   0.26919359  0.05202745  0.50857781
   0.75509559  0.52677780  0.99069530
   0.73122075  0.03322950  0.74636941
   0.23228408  0.46313666  0.24940156
   0.28298351  0.51799179  0.75475826
   0.76940512  0.97912471  0.24260419
   0.24182102  0.54660890  0.49812671
   0.73525525  0.00902003  0.99821395
   0.75302550  0.97176664  0.49081568
   0.27207782  0.45297505  0.00620014
   0.97046702  0.25124884  0.37507580
   0.48423571  0.75463925  0.87102071
   0.49559267  0.29379292  0.62094535
   0.02314070  0.72133879  0.11774757
   0.97228679  0.24923026  0.87610091
   0.48177203  0.74190771  0.37113160
   0.02266252  0.77133584  0.61823654
   0.49731317  0.20777675  0.12279358
   0.17230394  0.36308562  0.05948853
   0.64027529  0.90317497  0.54925431
   0.62906126  0.10519184  0.94508958
   0.13492575  0.63949706  0.45149906
   0.37828071  0.36274913  0.95181833
   0.86460609  0.87934989  0.44346127
   0.83810095  0.10993486  0.05332567
   0.35050762  0.64774652  0.55062949
   0.87800543  0.08880648  0.19630057
   0.37217974  0.63132725  0.69958241
   0.86189660  0.86614514  0.29542951
   0.39681314  0.40300594  0.79856424
   0.12804332  0.58378801  0.29406848
   0.63210528  0.12185429  0.80482834
   0.13143126  0.36539908  0.19989307
   0.62236096  0.92269886  0.69758210
   0.86999472  0.61952806  0.94622292
   0.37204680  0.15043445  0.45402091
   0.83796073  0.38869054  0.55314624
   0.35159189  0.85952860  0.05008492
   0.16997157  0.14214897  0.56047538
   0.63933180  0.59497538  0.04725137
   0.13790786  0.86630643  0.95075000
   0.62937323  0.38954719  0.44457246
   0.62934642  0.37800745  0.30216995
   0.12831494  0.91694080  0.79362295
   0.12898338  0.13037719  0.70254912
   0.62234397  0.57934767  0.19714068
   0.87760807  0.40871759  0.69675643
   0.37300199  0.87052425  0.20017512
   0.39854730  0.09812947  0.29833768
   0.86120043  0.63370956  0.79531517
   0.14851941  0.05591473  0.05534593
   0.65527174  0.61489357  0.54833045
   0.64672472  0.44295608  0.93508624
   0.17498178  0.94088766  0.45289474
   0.34660770  0.06512224  0.95518475
   0.84300312  0.58984708  0.43821049
   0.85475432  0.40157271  0.03812120
   0.37433206  0.94160895  0.55028449
   0.16134265  0.06589972  0.20571947
   0.66851955  0.62508209  0.68722780
   0.16828712  0.89146411  0.30478243
   0.66461010  0.42084018  0.79247304
   0.83957311  0.56854751  0.29391067