Na88 Sn16 P8 S96
1.0
13.481333 0.000000 0.000000
0.000000 13.481333 0.000000
0.000000 0.000000 26.962666
Na Sn P S
88 16 8 96
Direct configuration=      1
0.00579667 0.99463237 0.12515247
0.49544111 0.57444670 0.62572689
0.49987066 0.47763637 0.86975237
0.98860220 0.95252218 0.38393257
0.31278047 0.97319689 0.86685132
0.95125648 0.48017035 0.37222625
0.98973752 0.44507788 0.13603407
0.24112507 0.22566199 0.14041210
0.77333128 0.95805876 0.62836765
0.71685253 0.27326937 0.87022633
0.77068923 0.74550969 0.38057493
0.25855521 0.24120679 0.88415057
0.77159247 0.22364301 0.11581380
0.27568953 0.77447989 0.61717038
0.01814753 0.98001629 0.87973021
0.24822867 0.48050692 0.37869740
0.00704151 0.03986849 0.62923567
0.00387915 0.50467172 0.63193920
0.55712651 0.96997384 0.11130173
0.99147534 0.54871393 0.87121884
0.51709614 0.01742978 0.36756386
0.27816284 0.21499656 0.36858078
0.80250211 0.79117157 0.87324576
0.79089958 0.24228683 0.61653495
0.26023382 0.70674436 0.14292352
0.21742816 0.27071172 0.62979053
0.75722977 0.61909479 0.12549386
0.72503411 0.21739830 0.37662738
0.50146325 0.75984778 0.50833386
0.49024203 0.24389343 0.97540904
0.00862742 0.50372782 0.50603376
0.52508030 0.78613078 0.73956129
0.01297944 0.74702408 0.27104602
0.51658031 0.28609964 0.74673617
0.01206779 0.98953242 0.99333126
0.48223528 0.23643851 0.48965715
0.50984615 0.73660481 0.00873896
0.46529358 0.24185416 0.25536044
0.02929492 0.69042660 0.75006810
0.51830827 0.73982410 0.24940899
0.01565688 0.96004766 0.24391144
0.54273641 0.53075095 0.74494767
0.49943817 0.01105201 0.75448334
0.97296927 0.47282883 0.24123902
0.27329077 0.22465739 0.02618625
0.76683129 0.75320145 0.53946969
0.02580646 0.77037064 0.49131040
0.76741317 0.28460144 0.99352914
0.02042363 0.02318879 0.75122693
0.49116198 0.49016317 0.26512246
0.00595815 0.36118354 0.75555777
0.51196254 0.97872241 0.24960234
0.25572486 0.28987100 0.48770800
0.72695203 0.75882151 0.98717253
0.76762931 0.23111197 0.49427180
0.20538063 0.74336044 0.02712917
0.02717374 0.32472124 0.00520543
0.49887724 0.51545221 0.48901161
0.49838707 0.47008709 0.01028213
0.00367420 0.00670309 0.50042925
0.52490476 0.98184067 0.96591964
0.00941557 0.28400512 0.50647915
0.98512800 0.58941195 0.02222000
0.50165189 0.99156089 0.50837473
0.04597795 0.21826909 0.24575293
0.77942000 0.78835937 0.74283979
0.26189474 0.71952757 0.26758893
0.77019217 0.26437549 0.74602199
0.76326686 0.72907411 0.24397497
0.23852981 0.26270007 0.75336506
0.76586642 0.23309221 0.24661207
0.27310140 0.78260186 0.75482418
0.28214251 0.46205111 0.13341329
0.50705827 0.02460135 0.62478915
0.70672315 0.99718278 0.85887653
0.24474371 0.73481777 0.38888702
0.22430336 0.48384072 0.86598554
0.76012685 0.98209260 0.38046499
0.79691732 0.91830156 0.11640147
0.25612909 0.52424733 0.62660542
0.72987110 0.53655919 0.87056150
0.25405598 0.98889172 0.37369051
0.76144653 0.50734500 0.62546669
0.28003469 0.99085013 0.12640600
0.25291150 0.04221188 0.62547763
0.53306586 0.49702929 0.12517319
0.23321113 0.73559500 0.90121857
0.67255697 0.49523107 0.36649606
0.26935358 0.97545333 0.25567455
0.77254544 0.52430081 0.75454703
0.25754631 0.04487129 0.74696175
0.73477327 0.44929384 0.23891013
0.27043134 0.98033599 0.00147443
0.75815222 0.49427713 0.49409681
0.25733601 0.00862979 0.50150396
0.74454841 0.51776109 0.99320887
0.74287671 0.04308094 0.74540464
0.22855532 0.47758836 0.25240225
0.26683208 0.52678647 0.75376608
0.76366828 0.96855174 0.24577137
0.25296578 0.52426972 0.50446567
0.75389357 0.01829272 0.98770070
0.75701083 0.99102424 0.50105062
0.23143349 0.48117995 0.01150305
0.98770188 0.21887126 0.37524190
0.50488269 0.75101038 0.87660349
0.48853960 0.29270304 0.62331429
0.01277538 0.71121449 0.13827112
0.00570787 0.26099927 0.86432615
0.51168139 0.75404903 0.37456817
0.02016435 0.76784642 0.62719048
0.49646616 0.23217862 0.12398963
0.15382248 0.36940205 0.06745776
0.64171242 0.89736370 0.55453209
0.65360233 0.12281688 0.93886296
0.12566519 0.59713576 0.45002699
0.33659027 0.36589060 0.95391806
0.85470976 0.88344898 0.44794312
0.85161674 0.09634361 0.05067472
0.35129237 0.64399891 0.55281303
0.86690030 0.06142819 0.18981592
0.36136005 0.62356496 0.70182808
0.86761536 0.87452011 0.30589675
0.36928359 0.41253949 0.79286945
0.11122615 0.57744592 0.30403700
0.64708898 0.14741402 0.79570049
0.12156092 0.38570122 0.20125766
0.63445750 0.93809274 0.69829161
0.84644820 0.62538660 0.94342621
0.35758824 0.12643897 0.44933866
0.87473263 0.39840452 0.54624856
0.35983541 0.87029375 0.05542997
0.14937029 0.13169216 0.53969047
0.63624248 0.61369597 0.04540370
0.16738494 0.89413848 0.94568906
0.66944305 0.37610415 0.45184112
0.63459021 0.36427934 0.29371549
0.16619515 0.91707077 0.79721292
0.13848097 0.14747192 0.69499549
0.63653357 0.57687198 0.19517676
0.87603460 0.43983249 0.69830923
0.36384070 0.86628398 0.20207657
0.37505723 0.07521196 0.30584414
0.86616425 0.63193537 0.80138968
0.16103915 0.08038295 0.05893031
0.64847740 0.57248686 0.55149241
0.64758875 0.41143196 0.94337294
0.15277765 0.89672885 0.44771688
0.35965842 0.08607529 0.94936222
0.85915461 0.61145742 0.45192215
0.85103806 0.41750606 0.04659463
0.34875474 0.92672722 0.55652358
0.17720209 0.08464107 0.20673664
0.67154562 0.63753464 0.70128167
0.16765561 0.87905102 0.31355232
0.67019894 0.39924102 0.79406389
0.82363802 0.55439263 0.29623349
0.35369191 0.14010168 0.80393815
0.84106152 0.36483879 0.18241517
0.35664386 0.95462400 0.68703156
0.86727253 0.91402542 0.94340320
0.35203050 0.42199587 0.45101768
0.85569029 0.08535077 0.54955983
0.34786178 0.58792120 0.06052271
0.14699943 0.41480591 0.55163654
0.65239107 0.91037775 0.03657275
0.14563447 0.60139223 0.96352994
0.64317135 0.08615974 0.45119850
0.33438662 0.37033884 0.30681432
0.84811417 0.93274657 0.79551403
0.86334051 0.11405891 0.68969283
0.34464027 0.58317733 0.20639276
0.17862280 0.41338198 0.69735412
0.65306230 0.87187868 0.19567639
0.66938636 0.07376672 0.29760180
0.17150114 0.62647917 0.81123384
0.07504180 0.11589866 0.33806462
0.58501183 0.64555720 0.83887209
0.57788429 0.37641503 0.66953847
0.09142025 0.80744733 0.17939913
0.40526793 0.18875956 0.66157496
0.91862462 0.64155787 0.18551012
0.90395003 0.29934130 0.32079569
0.41227082 0.80856451 0.82200443
0.07296884 0.17032765 0.91887808
0.59912912 0.67595199 0.42716557
0.08116770 0.86897761 0.57594217
0.57815129 0.31443020 0.07301939
0.92379557 0.66823814 0.59229813
0.40589826 0.14531773 0.08396561
0.91347830 0.36163751 0.89639065
0.41438174 0.84875764 0.41206317
0.93225621 0.84924956 0.67481515
0.41777269 0.33861930 0.16477152
0.93354642 0.16972987 0.81745824
0.41767988 0.66093110 0.33470655
0.11636837 0.34110585 0.83223294
0.59521424 0.84057697 0.32894556
0.12248418 0.68156929 0.66287868
0.58328360 0.15711800 0.17510777
0.41276782 0.37228466 0.57704176
0.95556452 0.78544207 0.07602759
0.89238544 0.13744399 0.41795024
0.41731301 0.67220958 0.92639114
0.07684463 0.31739275 0.41514883
0.59540395 0.86341806 0.90107046
0.58585139 0.20334051 0.58509666
0.10269819 0.60314693 0.10826032
Direct configuration=      2
0.02102444 0.98542569 0.12107228
0.51335645 0.51971639 0.61562762
0.52041352 0.45820586 0.88329522
0.03922471 0.92339742 0.37548494
0.28189663 0.98450333 0.87670382
0.95620778 0.47676935 0.36918858
0.00244118 0.46110037 0.11929160
0.23142808 0.24273740 0.13540965
0.78697936 0.96899993 0.62201326
0.74545083 0.27082613 0.86085482
0.77299365 0.71441861 0.36911981
0.26177972 0.20232185 0.87828337
0.74765916 0.22802026 0.12226085
0.30400577 0.79432551 0.61114884
0.00053312 0.98512384 0.87405040
0.20143371 0.48243485 0.38699790
0.02350529 0.05820112 0.61891517
0.03450454 0.51333393 0.64352016
0.49406760 0.97865307 0.12925969
0.02300573 0.51558806 0.86341640
0.55039592 0.00070692 0.37081136
0.24197729 0.22368653 0.33843842
0.75104233 0.76014378 0.86772583
0.75072704 0.26906759 0.62637515
0.28193730 0.74163609 0.13793321
0.26771403 0.30858136 0.62071625
0.74886306 0.54603347 0.11507394
0.71260936 0.25917027 0.36866000
0.45966051 0.75965897 0.49722273
0.53392798 0.21734025 0.99239390
0.99765197 0.55865567 0.52651454
0.51410910 0.78210097 0.74995435
0.02261016 0.71095492 0.26511166
0.51622767 0.27234544 0.75204449
0.99244439 0.97305595 0.00137214
0.52626447 0.27016210 0.49388231
0.47781554 0.74843224 0.01340963
0.45055817 0.24476214 0.24874455
0.01301856 0.68621952 0.74318347
0.51028374 0.71287892 0.25460569
0.01171394 0.98977883 0.25933660
0.52893219 0.52782818 0.75701139
0.48937767 0.05807535 0.74412817
0.98783498 0.48451857 0.25191884
0.27543719 0.24521870 0.99907670
0.79217620 0.74980296 0.51918089
0.04949404 0.76177441 0.49935612
0.77481936 0.25947410 0.99120051
0.97810445 0.01104319 0.74596455
0.47542126 0.47560792 0.26290281
0.03522900 0.29219740 0.73896538
0.52632983 0.98399621 0.24057973
0.20880443 0.26826941 0.47668781
0.76837694 0.76214544 0.01201789
0.77043600 0.24193587 0.49520208
0.19760693 0.72988206 0.01328181
0.97567468 0.26812188 0.98587644
0.52498992 0.50153895 0.49130632
0.49447959 0.51038896 0.99852044
0.98937334 0.03504653 0.49292766
0.49158170 0.96185309 0.97502052
0.01384509 0.27356595 0.53129726
0.98391205 0.59676542 0.02381072
0.51767446 0.99386126 0.49453629
0.04026697 0.22029803 0.24802446
0.77624868 0.78491362 0.72135387
0.26684819 0.71190352 0.26151813
0.80765737 0.28174964 0.75830488
0.76779496 0.70458676 0.23516382
0.26467986 0.27189058 0.75719219
0.75551080 0.20741649 0.23811033
0.24849663 0.76931759 0.75192616
0.22166491 0.47461162 0.12778227
0.50947422 0.01316302 0.62922275
0.70404513 0.00750656 0.86485886
0.27672398 0.74539485 0.40551518
0.27051467 0.49639004 0.87884142
0.80648499 0.99838336 0.36844599
0.75094638 0.92271860 0.11713955
0.27349788 0.54751063 0.63308782
0.76520414 0.51296148 0.87309186
0.28516181 0.97401555 0.37005851
0.74225913 0.49981478 0.62345590
0.26702052 0.98383750 0.12829972
0.27964630 0.06705285 0.62542729
0.50734229 0.51002168 0.11637793
0.21813604 0.72584107 0.87624454
0.63812802 0.50066546 0.36664109
0.26401310 0.98617981 0.25315053
0.78059715 0.53930929 0.74621863
0.23551535 0.03020107 0.74625722
0.71344767 0.45548796 0.24732765
0.25027392 0.99598577 0.99686064
0.76211888 0.51342953 0.49482920
0.24797938 0.02372481 0.49808103
0.75189307 0.50805509 0.99781285
0.74938127 0.03414097 0.74101546
0.24149673 0.46059353 0.25397722
0.28569183 0.52315653 0.75310629
0.76626864 0.96534286 0.24548862
0.26126126 0.52691383 0.50895094
0.75032713 0.00693561 0.99904969
0.75871100 0.98351527 0.50270312
0.24409302 0.49283860 0.00429638
0.99765268 0.21514712 0.37158319
0.48341671 0.74105002 0.87531256
0.51155575 0.27250732 0.61696947
0.00259689 0.74037286 0.13392391
0.01013382 0.25351324 0.87098531
0.51934884 0.74877848 0.37840228
0.02670077 0.77635050 0.62635738
0.49099370 0.23489357 0.12760538
0.14423869 0.37013007 0.04360841
0.66380084 0.88137755 0.56068632
0.66246383 0.11370847 0.94259862
0.17211623 0.63655950 0.45635732
0.37349154 0.38307000 0.95376353
0.87945967 0.88599090 0.46054222
0.86245863 0.10690938 0.04657315
0.38299681 0.61345424 0.56433387
0.87808211 0.06254609 0.19666279
0.37092233 0.63543247 0.70662596
0.87735527 0.85079916 0.29198372
0.38370751 0.41240584 0.80156159
0.13399773 0.57745645 0.30577202
0.64805002 0.15049017 0.78801679
0.13462680 0.36778250 0.20347542
0.63301027 0.93092951 0.69663952
0.85301349 0.61739577 0.94887678
0.34440215 0.11493755 0.43596280
0.84177567 0.40182497 0.55656835
0.34899634 0.89451095 0.05304456
0.15121920 0.13774138 0.55005026
0.63572272 0.61246981 0.04350251
0.14713280 0.88922902 0.94991270
0.67426779 0.40068064 0.44408769
0.62208394 0.34527046 0.29338421
0.12552122 0.93688314 0.80270386
0.13344900 0.13910338 0.69195309
0.61230481 0.58183258 0.20483002
0.87167135 0.42518731 0.69567175
0.37816794 0.87467132 0.20374069
0.37781953 0.07666682 0.30006131
0.86614241 0.63538138 0.80147756
0.14145416 0.07805447 0.05626556
0.65642540 0.60909936 0.54666347
0.65362299 0.40086027 0.94934511
0.15484727 0.90424903 0.45013144
0.35252443 0.10682056 0.94757118
0.87274940 0.61305042 0.44547517
0.85693693 0.42620303 0.05562261
0.35855753 0.94714378 0.54906580
0.15265659 0.07081267 0.19913676
0.66470833 0.62968257 0.69147656
0.16679656 0.87746167 0.30254357
0.67563171 0.43419141 0.80335897
0.80395411 0.55920496 0.30453004
0.33839663 0.13155877 0.80175070
0.82319495 0.36632581 0.19559011
0.34490079 0.91130709 0.70512588
0.85579669 0.90715699 0.94558863
0.35475072 0.42227215 0.45633103
0.85575934 0.09486670 0.55150301
0.35136571 0.57631442 0.06581628
0.15100948 0.43683085 0.56358146
0.63140078 0.91830873 0.04721366
0.12740881 0.58364134 0.95552094
0.66915599 0.08807007 0.44117588
0.34265808 0.37155947 0.31598069
0.82589228 0.91942855 0.79896394
0.84966033 0.13572192 0.68994486
0.33106064 0.57282625 0.20110748
0.17167671 0.43377990 0.70036797
0.66451418 0.86450073 0.19476901
0.67506481 0.06964421 0.30079731
0.17080130 0.60695783 0.80404150
0.09282598 0.11262171 0.34106473
0.55805607 0.64171520 0.83436128
0.60574971 0.36894475 0.66110251
0.07931899 0.83919967 0.17727603
0.41423367 0.20839120 0.66571743
0.92570742 0.63093830 0.17510838
0.91604123 0.28859630 0.32113322
0.39281297 0.82142980 0.82813775
0.06075591 0.15600566 0.92070020
0.59102563 0.67252411 0.43036908
0.08889670 0.87173357 0.58212389
0.58527644 0.30393887 0.07899689
0.92741900 0.67757660 0.59728495
0.38812122 0.14423979 0.09389453
0.90141243 0.34240838 0.90416601
0.43802066 0.85660539 0.41610346
0.95049778 0.83599589 0.68105410
0.41932765 0.34374393 0.16322410
0.93545618 0.18696960 0.81336329
0.41493379 0.65526088 0.34872099
0.11548433 0.35486990 0.84060038
0.61698772 0.81149707 0.32565645
0.13626096 0.69609775 0.65734948
0.57306509 0.15807817 0.17742102
0.42505801 0.34801653 0.56736281
0.90328776 0.80533883 0.08424816
0.89914836 0.13880546 0.41842863
0.38471347 0.66956806 0.92612859
0.06801124 0.32181169 0.41697893
0.59004078 0.82087296 0.91431960
0.59150491 0.17320360 0.58180944
0.11106955 0.65709567 0.09452224
Direct configuration=      3
0.99413960 0.01180734 0.12596987
0.53085878 0.51741688 0.61628843
0.52207150 0.48613954 0.87184074
0.01809289 0.92223992 0.37410154
0.25429106 0.99365543 0.86675021
0.95367212 0.46254271 0.37000674
0.99933582 0.45572321 0.12529874
0.21976123 0.24700389 0.13318649
0.78286958 0.95435705 0.62734780
0.74225082 0.22964610 0.88214028
0.78168670 0.72214412 0.38477292
0.28066565 0.23517233 0.88720844
0.77108721 0.23185624 0.12850523
0.26709810 0.80627498 0.61408932
0.94243468 0.00088527 0.86562688
0.23049797 0.49096437 0.38030470
0.00592434 0.04318908 0.62763525
0.03284233 0.52821479 0.64274147
0.49633344 0.98287556 0.10821630
0.01273642 0.50849655 0.87181579
0.55378045 0.01216249 0.36221870
0.25950851 0.22293961 0.34452862
0.74178267 0.73800818 0.86967333
0.78680218 0.24316270 0.61860575
0.28433460 0.74430464 0.12249846
0.25719309 0.29353600 0.61219080
0.74852392 0.49071607 0.12984596
0.76099090 0.25290788 0.37234238
0.50870333 0.78902466 0.51812469
0.47858022 0.22315820 0.00009434
0.01318660 0.52777234 0.50602695
0.50156116 0.76585523 0.75341123
0.00776941 0.72491637 0.25137908
0.52917465 0.30688543 0.75817737
0.99097739 0.96535122 0.00200075
0.51172233 0.24746026 0.46928822
0.49192196 0.74597260 0.01692185
0.44716141 0.23994497 0.25490786
0.01312718 0.68593544 0.75145406
0.49643239 0.74386099 0.23329357
0.03527729 0.97296943 0.25424140
0.51811710 0.52343915 0.75019115
0.47768487 0.01763749 0.74599412
0.96881918 0.44876565 0.25550106
0.25240732 0.22967297 0.01415830
0.77793708 0.73143471 0.51076029
0.03664866 0.78314775 0.50106868
0.75142302 0.24602023 0.00535430
0.99477271 0.02838739 0.75435922
0.46716314 0.47996896 0.24443602
0.01060040 0.27793316 0.73023602
0.52930896 0.99853799 0.25288098
0.24246145 0.26767221 0.49003720
0.76325007 0.76830095 0.01630608
0.77119629 0.25239058 0.49629907
0.23674724 0.73888344 0.99081543
0.01810070 0.24875256 0.02500934
0.51316972 0.52669794 0.48851594
0.50324086 0.51904251 0.98996368
0.02140210 0.05083783 0.48534786
0.50372415 0.98435031 0.97814848
0.01375186 0.27898141 0.53224820
0.00333507 0.58246660 0.00108998
0.50732060 0.01910919 0.48744433
0.01488359 0.20338756 0.24106060
0.77652286 0.77773476 0.72544504
0.26660683 0.70571806 0.27578498
0.77645673 0.27122643 0.73344734
0.74257168 0.70927769 0.24507045
0.27867721 0.25721794 0.75259543
0.73387247 0.22853989 0.25389089
0.24035056 0.78225498 0.74665033
0.23466156 0.51923681 0.12225853
0.53865133 0.98378161 0.60690740
0.68191862 0.97875472 0.87601859
0.26256465 0.75111067 0.40750303
0.28809061 0.50317885 0.87712444
0.78858805 0.98982981 0.37272379
0.77353313 0.97073793 0.12270285
0.26477558 0.55552325 0.62806561
0.79173686 0.48479205 0.87102251
0.29432865 0.99021997 0.38175462
0.78991273 0.55221143 0.61877573
0.24057718 0.98459311 0.11896329
0.29674959 0.04643641 0.62159528
0.48325206 0.49005843 0.12528873
0.22176614 0.76701741 0.87460061
0.58865991 0.51913123 0.36329436
0.26831666 0.98280739 0.24664129
0.77680464 0.52980975 0.74598215
0.22515359 0.00847386 0.75208283
0.71617286 0.46411413 0.25494002
0.23535537 0.99133437 0.00074300
0.76057888 0.49489203 0.49402369
0.26863001 0.03266287 0.49834360
0.74602886 0.50710604 0.00037451
0.73494760 0.02914781 0.74615080
0.22491818 0.46362596 0.25278125
0.28306586 0.52395276 0.75399578
0.77572493 0.95242143 0.24842542
0.26829153 0.52268207 0.51114795
0.74122061 0.01249526 0.99887994
0.76877041 0.99972412 0.49848496
0.25116701 0.48375554 0.99646841
0.99808718 0.23117650 0.37003543
0.47472768 0.73976419 0.88383967
0.52296899 0.26073775 0.62441911
0.00738267 0.73922507 0.12529928
0.01807719 0.25528159 0.87314422
0.51727621 0.74872977 0.37464003
0.01859274 0.78981465 0.62654159
0.49252080 0.24941115 0.12690840
0.15763654 0.39829753 0.05910713
0.64969201 0.89437577 0.54147503
0.64264205 0.12255757 0.94704227
0.15502167 0.61736943 0.46268443
0.37302363 0.36903673 0.94900322
0.86017356 0.87470178 0.45312336
0.85142972 0.10380544 0.05367409
0.37702147 0.63632373 0.55964990
0.85479999 0.08495868 0.20111637
0.38911512 0.61945439 0.70660868
0.87735815 0.85655404 0.30553494
0.38343400 0.41412053 0.80704287
0.11145118 0.56451410 0.30577477
0.63051813 0.13804700 0.79877402
0.13080987 0.37395289 0.19483040
0.63133182 0.92142998 0.69367433
0.83871073 0.62873537 0.94937118
0.37416919 0.13162673 0.44180416
0.86387151 0.40863904 0.55420743
0.33904172 0.87876149 0.04196246
0.16049152 0.13780034 0.54682501
0.64495948 0.59437196 0.05781090
0.13704453 0.90305388 0.94317471
0.65941617 0.39473547 0.44471456
0.60599055 0.36042064 0.29640473
0.11354835 0.89193551 0.80115815
0.14170456 0.12662691 0.69305545
0.61817484 0.56877847 0.19901436
0.88314118 0.43146721 0.69381170
0.36860371 0.87914924 0.18913542
0.37333310 0.07366595 0.29992037
0.86012879 0.62683402 0.80282910
0.12349960 0.09611990 0.05367787
0.66477614 0.60341787 0.54423794
0.64947954 0.40154495 0.94491703
0.17389963 0.92163736 0.44720956
0.34100226 0.09122919 0.95061143
0.88286527 0.60260134 0.45319395
0.85426343 0.40915672 0.05150216
0.37429211 0.94967231 0.54812170
0.16128948 0.09223081 0.19972684
0.66755076 0.62955145 0.69269279
0.18642226 0.88081875 0.30556690
0.67772058 0.42451985 0.79603576
0.80396920 0.56229122 0.31255181
0.34079109 0.10827561 0.80214091
0.83338010 0.37542582 0.20063381
0.32961317 0.91357020 0.69450524
0.81530448 0.89742837 0.94177140
0.36115011 0.42445363 0.45372126
0.85962685 0.09975355 0.55463458
0.34261719 0.61038581 0.04467133
0.15877921 0.42685640 0.56501927
0.64441543 0.91631373 0.05373466
0.15015660 0.57920179 0.94163645
0.65539517 0.09198745 0.44185278
0.34318610 0.38829796 0.31302190
0.82747759 0.91327326 0.79629747
0.85709129 0.11160117 0.69641431
0.33106573 0.58514252 0.20953616
0.20169437 0.42931047 0.69288986
0.65603683 0.86441655 0.20214820
0.69952667 0.07295846 0.30323383
0.18097228 0.61463087 0.80598007
0.07006407 0.12016048 0.33451894
0.57212849 0.66219875 0.83710937
0.60804764 0.35240696 0.66517374
0.08482605 0.83810426 0.17455301
0.43004026 0.17785110 0.67010861
0.92963053 0.62882314 0.16358052
0.91971777 0.30454718 0.31420115
0.40625984 0.84542184 0.84364509
0.07279135 0.14349275 0.92128349
0.58918474 0.67494923 0.42891773
0.10404355 0.88390430 0.58545938
0.58558522 0.33568034 0.08739662
0.94637340 0.69337004 0.58126125
0.40692902 0.15639403 0.08411863
0.92386391 0.33517862 0.91953905
0.44476986 0.85395767 0.41850452
0.94700289 0.88125172 0.67891656
0.39806793 0.33000012 0.17143352
0.92467510 0.19504012 0.81801644
0.43116500 0.64781179 0.33792158
0.11611326 0.34523859 0.83911718
0.62051604 0.79807892 0.32453336
0.11446052 0.70217293 0.66836815
0.56895257 0.15020823 0.16886220
0.44337775 0.34761962 0.57315298
0.91247573 0.83193399 0.08743025
0.90388270 0.17761390 0.42336505
0.39387490 0.64425492 0.92189755
0.08740209 0.32315072 0.40415652
0.56374210 0.81279741 0.93256444
0.60784640 0.16029025 0.57703065
0.11046606 0.67117556 0.08005925
Direct configuration=      4
0.00452497 0.00637204 0.12996864
0.51851706 0.53583932 0.63028700
0.53060764 0.49660404 0.86457522
0.02813456 0.95331752 0.37508735
0.20279336 0.00708632 0.88353406
0.96170479 0.50958432 0.37703768
0.97974052 0.48873232 0.12656582
0.24438258 0.23010258 0.13948313
0.78072700 0.96988569 0.62624897
0.75151945 0.22603740 0.88014899
0.77674780 0.74144606 0.37869836
0.27141368 0.22899337 0.86683712
0.74891902 0.23708136 0.12699441
0.28279883 0.77661111 0.61270290
0.95452257 0.02275860 0.88185384
0.26602892 0.50953879 0.37594765
0.02168469 0.05445852 0.63419004
0.04586170 0.48649184 0.63691398
0.49267103 0.99480193 0.11708316
0.03227973 0.52138869 0.86438368
0.51127385 0.00815001 0.36699167
0.26401260 0.22204445 0.36042464
0.77801307 0.76118778 0.88567782
0.79791578 0.26538021 0.61961354
0.25570048 0.74586011 0.12388837
0.27509236 0.26853790 0.63294634
0.74023309 0.51205361 0.13331121
0.71666098 0.25589820 0.36739552
0.50163955 0.76584636 0.49848725
0.50024563 0.25799351 0.98459281
0.01499111 0.48431662 0.49217319
0.51137083 0.78784993 0.74480008
0.99577701 0.71445152 0.25359779
0.52662464 0.23288321 0.74646316
0.98848215 0.95943244 0.00811600
0.50070389 0.30042187 0.49646759
0.51311889 0.73921972 0.01985464
0.46810746 0.24342351 0.25620279
0.02849924 0.75164860 0.76508680
0.51040026 0.74187063 0.23125286
0.02011754 0.95222389 0.23789628
0.54422158 0.53420936 0.74506865
0.47208858 0.01660821 0.75145110
0.95619216 0.48344637 0.24423706
0.25170722 0.22852865 0.01061830
0.77605029 0.75288084 0.51776313
0.05410708 0.78056871 0.49174662
0.71170922 0.28532175 0.01520073
0.95801449 0.00381926 0.75700190
0.46971044 0.46800484 0.24411473
0.01576707 0.31702719 0.75504863
0.53316571 0.99161622 0.22721656
0.26325970 0.28634401 0.48947364
0.77623553 0.75396329 0.02149648
0.75783120 0.24073905 0.50265263
0.26155672 0.73323126 0.99253717
0.99429174 0.25483538 0.00378931
0.50766083 0.52520268 0.49824765
0.49069334 0.47563544 0.99898926
0.03028090 0.03041376 0.48751707
0.47678669 0.96621357 0.98562909
0.02676673 0.26176238 0.50111926
0.98813110 0.53214391 0.00904374
0.53540350 0.01452051 0.50129189
0.00717314 0.22672046 0.23957466
0.76743370 0.76738891 0.74439429
0.25147313 0.71703336 0.28707470
0.75074766 0.27837100 0.73514273
0.76047019 0.73035397 0.24725498
0.26588831 0.24697352 0.74374194
0.72070202 0.20022519 0.24260642
0.27775701 0.75642859 0.75525430
0.20454140 0.50561326 0.12063987
0.53002235 0.00413299 0.62686726
0.62339877 0.96634095 0.86760268
0.26931824 0.76113394 0.42255391
0.24951459 0.47450834 0.86939291
0.77605262 0.98616148 0.37329692
0.76305291 0.97735912 0.12476927
0.26408500 0.52344249 0.63373436
0.78604082 0.46513050 0.87695495
0.26979550 0.98564460 0.36209490
0.82171737 0.57692038 0.62294669
0.23682061 0.98189580 0.12686305
0.25748992 0.02114954 0.63310832
0.49201961 0.52144132 0.12265679
0.24174192 0.76441273 0.87580151
0.56409353 0.49780006 0.37691951
0.28534782 0.97969984 0.24776832
0.77645110 0.51101827 0.75188587
0.23562890 0.00115282 0.74872627
0.72701154 0.46701799 0.25730652
0.23005519 0.97921786 0.99885532
0.76084011 0.47886414 0.49388970
0.28331754 0.02284334 0.50137112
0.74097714 0.50702375 0.00180983
0.72224137 0.01978560 0.75311398
0.20642752 0.48687053 0.24610177
0.27313552 0.50902541 0.74927853
0.77981532 0.97414762 0.25851918
0.26490017 0.53653016 0.50238114
0.72724558 0.01693854 0.99914545
0.77869799 0.01232539 0.49121836
0.24378413 0.48426038 0.00237738
0.01289078 0.23317549 0.37679710
0.50476890 0.75948203 0.87438320
0.52755803 0.25214750 0.61396631
0.00319708 0.74909299 0.12156257
0.00407823 0.25703357 0.87357920
0.51095840 0.75648140 0.37456706
0.01495103 0.78226063 0.62282715
0.49409023 0.24477014 0.12840901
0.15498259 0.37121226 0.05497409
0.66526654 0.91149020 0.54474436
0.62469386 0.13128117 0.95645594
0.14727007 0.60503563 0.44839126
0.35014697 0.36790303 0.94102118
0.88716042 0.90359432 0.44058918
0.83463385 0.11472245 0.05226317
0.37561855 0.64201902 0.55397680
0.88312722 0.06244651 0.19876087
0.37702925 0.61677188 0.70336883
0.88996830 0.85928393 0.29750626
0.39067745 0.39973218 0.78786718
0.11334285 0.58278300 0.30934504
0.61574265 0.11937776 0.81212936
0.09602238 0.39657664 0.19198843
0.61979893 0.90978517 0.70283448
0.85482500 0.61675738 0.95282843
0.36962363 0.14164403 0.44691734
0.88085064 0.37749350 0.53832792
0.34041473 0.89242928 0.04985805
0.19273331 0.14328587 0.55128767
0.63465907 0.59936250 0.04835744
0.13062957 0.86513504 0.94859286
0.65942513 0.38003092 0.44624561
0.62172668 0.36171726 0.29981098
0.13062393 0.88982645 0.80399598
0.13023934 0.13112004 0.70727669
0.62624920 0.57965993 0.20371441
0.87916505 0.42286510 0.69293129
0.39354154 0.88771245 0.18581650
0.40245546 0.07255065 0.28857931
0.86365500 0.60232716 0.80977728
0.13302906 0.07708354 0.05796491
0.66613575 0.56236692 0.55541836
0.63934224 0.40247630 0.94487329
0.16583572 0.93166383 0.45247259
0.33696356 0.09627339 0.95408629
0.86593690 0.59069279 0.44714211
0.85357102 0.40852290 0.04850991
0.37997808 0.92825454 0.55225208
0.17080539 0.08694714 0.20326704
0.67985364 0.62152340 0.69614871
0.17589697 0.88850812 0.29736090
0.67902675 0.39107603 0.79786699
0.82595923 0.57192212 0.30572531
0.33028586 0.10337951 0.80375415
0.82860209 0.37853514 0.19690446
0.35277318 0.90945274 0.69471492
0.83218498 0.92621672 0.94454403
0.37720949 0.44632163 0.44661891
0.88056059 0.09672097 0.54736048
0.35576136 0.57477010 0.05374488
0.17258090 0.41972921 0.55303087
0.62451612 0.90756651 0.04443718
0.15279480 0.58095346 0.94348126
0.66940266 0.11646207 0.44100366
0.31626235 0.37390814 0.29376036
0.80729697 0.92031275 0.81526393
0.81416666 0.11171345 0.69615325
0.30617044 0.60608937 0.20574117
0.17514069 0.39625628 0.70251839
0.68465988 0.87525204 0.20146827
0.66624523 0.06319629 0.30866316
0.17250622 0.60002306 0.80393224
0.08944422 0.12556430 0.33764990
0.59709599 0.69155083 0.82737668
0.61118981 0.34566668 0.66632509
0.09485301 0.82768670 0.16364332
0.44466591 0.15798460 0.66513697
0.90901356 0.67399440 0.16670862
0.92393661 0.30951470 0.33043166
0.41282837 0.86594023 0.83992414
0.09679115 0.15899104 0.91194288
0.60201641 0.68005724 0.42200496
0.10924048 0.88023953 0.58198946
0.59264708 0.33369142 0.08779748
0.92937090 0.70638917 0.56962978
0.41717081 0.16034536 0.07939560
0.93924889 0.35300662 0.92168294
0.42453842 0.86172684 0.41198618
0.92281574 0.85575157 0.67407254
0.40570809 0.33592394 0.17271056
0.90751421 0.18599206 0.82748068
0.42198574 0.65229587 0.33887544
0.10827968 0.33507613 0.83312989
0.59934615 0.83551448 0.33058976
0.11984047 0.69877906 0.66307254
0.58483930 0.15306850 0.16981679
0.43651834 0.35440855 0.58209365
0.92035329 0.84453004 0.07951549
0.93370315 0.17847275 0.43208482
0.41406562 0.66642954 0.91535915
0.11005490 0.33393569 0.40701060
0.59136249 0.81860222 0.92655747
0.61574743 0.16996147 0.56964993
0.08126541 0.65636915 0.07245155
Direct configuration=      5
0.01891160 0.00690222 0.12399552
0.55089897 0.52100608 0.63283652
0.53838391 0.49530256 0.87644847
0.02648007 0.99161949 0.36365131
0.24035103 0.99636534 0.86777214
0.99603628 0.49811641 0.36648880
0.95389237 0.49099850 0.12256196
0.24545286 0.24549057 0.14766570
0.77182312 0.96698345 0.62093008
0.70108254 0.25401347 0.87102926
0.77787053 0.71558466 0.37113031
0.27483668 0.23970440 0.88783012
0.77726233 0.25836526 0.12695844
0.28481981 0.77289947 0.61488797
0.95439635 0.00444986 0.88078562
0.25020351 0.50093545 0.36344525
0.98715955 0.04014286 0.62859847
0.01550040 0.49180395 0.61739755
0.49390361 0.97523331 0.11192278
0.02384242 0.52217224 0.86822610
0.52990388 0.03838625 0.38549474
0.30686928 0.24786240 0.34921289
0.77817741 0.76098918 0.88716315
0.79125340 0.28252865 0.62131478
0.27122614 0.72572308 0.12872032
0.24850360 0.25569105 0.61236529
0.73729977 0.55374696 0.12205317
0.75814724 0.24012111 0.37261362
0.49427752 0.78675311 0.51276736
0.47617400 0.23166568 0.98793755
0.01594537 0.51818295 0.49459055
0.49303521 0.74256339 0.73542645
0.03465291 0.74368697 0.25421171
0.49220249 0.28482269 0.74630559
0.99109881 0.95668282 0.00471947
0.48948991 0.27683898 0.49534537
0.49394841 0.73419248 0.00157020
0.46663322 0.24645597 0.24925243
0.01901458 0.71236399 0.74252291
0.51109115 0.74156383 0.25127407
0.02766604 0.98532491 0.23997355
0.52544080 0.49942284 0.75851234
0.48978981 0.99403162 0.75875393
0.97080886 0.48184971 0.25061140
0.23411906 0.22754579 0.99714111
0.77092776 0.73243680 0.50529714
0.03178154 0.75653263 0.49543073
0.71147161 0.26385366 0.00284154
0.98162982 0.00795116 0.74419755
0.45510758 0.51272978 0.26713228
0.01967358 0.31016518 0.74561830
0.53557589 0.00105538 0.25382289
0.27238727 0.29268837 0.48709310
0.77565535 0.76174202 0.01892106
0.76101221 0.23031716 0.48968536
0.22928987 0.70966070 0.00887503
0.95271254 0.23869863 0.00220174
0.52072804 0.51667241 0.51149571
0.49541677 0.51040025 0.00805279
0.02287182 0.99119039 0.51693530
0.48504571 0.98511222 0.97613115
0.04198814 0.24831185 0.51179195
0.98116171 0.49544102 0.99166313
0.53969878 0.03748302 0.51034308
0.04204447 0.23863313 0.25735455
0.75497889 0.76674360 0.76412913
0.28259532 0.73597363 0.26941584
0.76573727 0.25565835 0.76264268