Simple cubic  O lattice with interstitial Li
   1.00000000000000
     8.0000000000000000    0.0000000000000000    0.0000000000000000
     0.0000000000000000    8.0000000000000000    0.0000000000000000
     0.0000000000000000    0.0000000000000000    8.0000000000000000
   O    Li
     8     1
Direct configuration=     1
  0.00000000  0.00000000  0.00000000
  0.50000000  0.00000000  0.00000000
  0.00000000  0.50000000  0.00000000
  0.00000000  0.00000000  0.50000000
  0.50000000  0.50000000  0.00000000
  0.50000000  0.00000000  0.50000000
  0.00000000  0.50000000  0.50000000
  0.50000000  0.50000000  0.50000000
  0.25000000  0.25000000  0.25000000
Direct configuration=     2
  0.00000000  0.00000000  0.00000000
  0.50000000  0.00000000  0.00000000
  0.00000000  0.50000000  0.00000000
  0.00000000  0.00000000  0.50000000
  0.50000000  0.50000000  0.00000000
  0.50000000  0.00000000  0.50000000
  0.00000000  0.50000000  0.50000000
  0.50000000  0.50000000  0.50000000
  0.35000000  0.25000000  0.25000000
Direct configuration=     3
  0.00000000  0.00000000  0.00000000
  0.50000000  0.00000000  0.00000000
  0.00000000  0.50000000  0.00000000
  0.00000000  0.00000000  0.50000000
  0.50000000  0.50000000  0.00000000
  0.50000000  0.00000000  0.50000000
  0.00000000  0.50000000  0.50000000
  0.50000000  0.50000000  0.50000000
  0.45000000  0.25000000  0.25000000
Direct configuration=     4
  0.00000000  0.00000000  0.00000000
  0.50000000  0.00000000  0.00000000
  0.00000000  0.50000000  0.00000000
  0.00000000  0.00000000  0.50000000
  0.50000000  0.50000000  0.00000000
  0.50000000  0.00000000  0.50000000
  0.00000000  0.50000000  0.50000000
  0.50000000  0.50000000  0.50000000
  0.55000000  0.25000000  0.25000000
Direct configuration=     5
  0.00000000  0.00000000  0.00000000
  0.50000000  0.00000000  0.00000000
  0.00000000  0.50000000  0.00000000
  0.00000000  0.00000000  0.50000000
  0.50000000  0.50000000  0.00000000
  0.50000000  0.00000000  0.50000000
  0.00000000  0.50000000  0.50000000
  0.50000000  0.50000000  0.50000000
  0.65000000  0.25000000  0.25000000
